ITEM: TIMESTEP
0
ITEM: NUMBER OF ATOMS
192
ITEM: BOX BOUNDS xy xz yz pp pp pp
0.0000000000000000e+00 1.2444699999999999e+01 0.0000000000000000e+00
0.0000000000000000e+00 1.2444699999999999e+01 0.0000000000000000e+00
0.0000000000000000e+00 1.2444699999999999e+01 0.0000000000000000e+00
ITEM: ATOMS id type x y z
1 1 11.83 2.56 2.18
2 1 5.36 6 1.81
4 1 3.38 4.28 4.84
6 1 7.34 0.18 2.18
12 1 3.64 3.19 1.08
16 1 11 5.31 5.17
17 1 0.97 4.12 0.84
18 1 1.24 5.99 4.76
21 1 8.06 4.72 1.3
25 1 6.25 4.56 4.21
40 1 9.48 2.11 5.92
44 1 11.7 0.33 0.6
45 1 7.63 2.04 0.28
51 1 5.94 0.84 5.91
56 1 5.36 2.06 3.14
62 1 1.41 2.32 4.17
63 1 9.69 3.69 3.56
65 2 11.09 2.87 2.74
66 2 5.51 5.51 2.6
68 2 4.28 4.19 4.46
76 2 3.84 4.17 1.06
80 2 11.18 4.84 6.05
82 2 0.43 5.51 4.88
85 2 7.92 3.83 0.8
89 2 6.93 4.56 4.89
95 2 8.4 3.45 6.18
120 2 4.74 2.41 2.42
126 2 1.76 1.44 4.07
127 2 10.05 4.44 4.1
129 2 12.25 3.32 1.68
130 2 6.27 6.22 1.56
132 2 2.96 3.44 4.61
140 2 2.67 3.09 1.05
144 2 10.68 6.2 5.44
145 2 1.51 4.9 0.53
146 2 1.94 5.36 4.61
149 2 8.58 4.29 2.01
153 2 6.17 3.63 3.9
167 2 1.25 2.26 6.18
172 2 11.38 0.95 1.34
173 2 7.43 1.82 1.24
179 2 5.45 1.07 5.12
182 2 9.73 5.52 1.11
184 2 6.02 1.57 2.67
190 2 0.92 2.56 3.28
191 2 9.34 3.01 4.17
10 1 12.06 0.64 8.92
20 1 8.39 5.72 10.39
22 1 3.23 3.34 8.26
23 1 5.02 6.21 7.29
26 1 12.18 2.35 11.11
28 1 5.87 5.84 9.79
31 1 8.03 4.28 6.57
32 1 5.29 1.92 11.56
34 1 2.04 5.49 9.71
36 1 11.75 6.18 11.01
37 1 6.11 3.07 7.96
38 1 8.22 1.38 9.43
39 1 1.31 2.02 7.09
41 1 9.33 3.34 10.97
43 1 11.25 3.48 7.51
58 1 10.51 5.81 8.66
74 2 0.27 1.04 8.27
81 2 0.68 3.76 12.44
84 2 9.08 5.89 9.68
86 2 4.23 3.22 8.21
87 2 5.27 5.9 8.19
90 2 11.88 1.61 11.75
92 2 5.62 4.99 10.13
96 2 4.64 2.37 12.16
98 2 1.1 5.3 9.72
100 2 11.36 6.2 11.9
101 2 5.85 2.21 7.53
102 2 8.81 2.01 9.89
103 2 2.17 2.43 7.46
104 2 10.1 2.53 6.55
105 2 9.07 4.29 10.91
107 2 11.12 4.2 8.14
109 2 6.83 1.84 12.19
115 2 5.48 0.06 6.32
122 2 10.89 6.06 9.58
123 2 2.15 5.99 11.18
138 2 12.07 1.36 9.54
150 2 3.12 4.28 8.41
151 2 5.12 5.54 6.6
154 2 11.4 2.92 10.99
156 2 6.81 5.9 9.83
159 2 8.74 4.67 7.12
160 2 4.84 1.08 11.38
162 2 2.02 6.1 8.92
165 2 6.81 3.46 7.31
166 2 7.52 1.99 9.1
168 2 9.31 1.19 6.35
169 2 8.84 2.9 11.69
171 2 12.13 3.22 7.5
3 1 12.17 7.34 2.71
8 1 5.32 11.19 1.83
9 1 9.39 11.14 1.1
13 1 11.88 10.9 4.7
14 1 3.88 8.05 2.51
19 1 10.1 9.09 3.32
24 1 3.94 10.55 3.95
27 1 6.76 8.57 4.07
33 1 1.53 12.16 3.45
35 1 6.66 9.05 1.21
42 1 1.31 8.49 0.81
48 1 8.02 11.27 4.66
52 1 1.88 11.66 0.64
54 1 10.32 6.26 0.89
67 2 0.24 6.8 3.29
70 2 6.53 12.07 1.99
72 2 5.74 10.31 1.64
73 2 8.71 11.07 0.41
77 2 11.55 10.19 4.15
78 2 3 8.17 2.14
83 2 9.51 9.48 3.94
88 2 4.44 10.9 3.14
91 2 6.79 8.54 3.09
97 2 0.74 11.69 3.86
99 2 7.54 9.11 0.83
106 2 0.64 8.13 1.45
108 2 11.03 12.03 0.58
112 2 7.37 11.88 5.08
116 2 0.99 11.99 0.41
117 2 4.54 10.95 5.79
118 2 10.94 6.29 1.65
131 2 11.5 7.85 3.14
134 2 7.6 12.39 3.03
136 2 4.93 11.46 0.96
137 2 8.92 11.68 1.69
141 2 11.89 10.59 5.56
142 2 4.27 7.23 2.16
147 2 10.02 9.64 2.47
152 2 3.97 9.58 3.89
155 2 5.96 8.02 4.26
157 2 1.83 6.59 6.16
161 2 2.38 11.71 3.7
163 2 6.05 8.48 0.61
170 2 1.39 9.44 0.85
176 2 7.5 10.43 4.47
180 2 1.92 11.57 1.62
185 2 9.34 7.2 0.21
5 1 4.54 11.73 11.9
7 1 5.73 9.9 10.31
11 1 5.01 7.72 11.74
15 1 9.82 9.16 10.18
29 1 2.18 6.91 6.99
30 1 10.89 7.69 6.78
46 1 8.86 9.52 7.4
47 1 2.01 11.54 6.89
49 1 5.82 9.18 7.71
50 1 8.11 11.19 11.22
53 1 4.66 11.28 6.73
55 1 2.01 11.07 10.33
57 1 8.56 7.59 12.17
59 1 2.37 6.23 12.1
60 1 0.3 8.77 10.05
61 1 9.47 12.13 7.57
64 1 0.75 9.22 7.39
69 2 3.63 11.56 11.76
71 2 5.37 9.14 10.85
75 2 5.46 7.08 11.15
79 2 9.53 10.04 10.56
93 2 3.09 6.66 6.98
94 2 11.73 8.22 6.86
110 2 9.13 10.45 7.25
111 2 1.76 12.44 6.8
113 2 5.59 8.29 7.44
114 2 8.14 12.12 10.86
119 2 2.52 10.55 9.76
121 2 8.84 8.27 11.56
124 2 0.49 9.06 9.13
125 2 8.69 12.34 8.15
128 2 1.44 8.49 7.32
133 2 5.04 11.17 11.3
135 2 5.94 9.68 9.37
139 2 4.17 7.28 11.8
143 2 10.8 9.22 10.18
148 2 8.41 6.43 11.04
158 2 10.19 8.36 6.88
164 2 12.12 7.05 10.81
174 2 9.15 9.43 8.28
175 2 2.97 11.66 6.88
177 2 6.69 9.4 7.47
178 2 7.29 10.77 10.93
181 2 5.05 10.55 7.26
183 2 1.73 11.85 9.82
186 2 10.71 6.56 7.97
187 2 1.86 7.03 12.37
188 2 1.08 9.16 10.59
189 2 10.19 12.39 8.15
192 2 1.11 10.09 7.21
ITEM: TIMESTEP
100
ITEM: NUMBER OF ATOMS
192
ITEM: BOX BOUNDS xy xz yz pp pp pp
0.0000000000000000e+00 1.2444699999999999e+01 0.0000000000000000e+00
0.0000000000000000e+00 1.2444699999999999e+01 0.0000000000000000e+00
0.0000000000000000e+00 1.2444699999999999e+01 0.0000000000000000e+00
ITEM: ATOMS id type x y z
1 1 11.9139 2.3316 2.24596
2 1 5.34994 6.04802 1.7892
4 1 3.19649 4.01182 4.80092
6 1 7.49446 0.164916 2.33759
12 1 3.35088 3.15469 1.44644
16 1 10.9721 5.16337 5.16442
17 1 0.804051 4.0669 0.690658
18 1 1.03519 6.04651 4.94112
21 1 8.2172 4.45179 1.40541
25 1 6.20911 4.86992 4.45734
40 1 9.47774 2.32781 6.1025
44 1 12.0106 0.526225 0.245599
45 1 7.88032 1.86439 0.0173916
51 1 5.80538 1.16939 5.54754
56 1 4.97651 2.28246 3.01732
62 1 1.65008 1.96069 4.42166
63 1 9.93586 3.96957 3.47336
65 2 10.1642 1.53258 2.04914
66 2 5.7507 5.72189 2.09596
68 2 3.76653 5.04692 5.66571
76 2 4.22651 5.74113 0.537281
80 2 11.3609 4.69885 5.08719
82 2 1.17923 5.40592 5.13752
85 2 6.037 4.31828 0.199181
89 2 7.68969 6.04224 4.36531
190 2 0.87338 3.57436 4.05788
120 2 4.86343 1.50032 2.02913
126 2 3.15285 1.1849 4.86347
127 2 9.17516 3.96986 3.11041
129 2 11.3901 3.41497 2.52222
191 2 9.37335 1.29202 4.12136
132 2 3.45358 4.33557 4.87451
140 2 2.48764 1.39877 2.17676
144 2 10.1221 5.80134 3.94476
145 2 0.63402 3.96449 1.27363
146 2 2.81015 5.75221 2.84297
149 2 7.51932 4.25596 3.05785
153 2 6.55838 2.85369 4.83225
184 2 7.28958 2.70347 2.50761
172 2 11.1554 0.0456547 2.84108
173 2 7.84878 1.71028 0.486301
179 2 4.34035 1.78555 4.30497
182 2 9.48383 5.03361 1.69496
134 2 8.07852 0.138589 4.19033
111 2 2.43593 0.259016 5.77665
70 2 6.39743 0.039392 2.00465
118 2 10.6469 6.03952 2.53491
169 2 9.30128 1.76623 0.257121
10 1 11.7904 0.369556 9.14483
20 1 8.15949 5.78033 10.5797
22 1 3.23966 3.61329 8.54622
23 1 5.17412 6.04633 6.9382
26 1 12.4269 2.17409 11.0538
28 1 5.643 5.63658 9.95724
31 1 7.80378 4.31635 6.64066
32 1 5.49902 1.96146 11.7668
34 1 2.33911 5.81728 10.0166
95 2 8.02415 4.14779 6.549
37 1 5.875 3.39005 8.19559
38 1 8.41456 1.28481 9.178
39 1 1.6923 2.09043 6.71255
41 1 9.13723 3.16246 10.5967
43 1 11.0071 3.18648 7.30062
58 1 10.8924 5.73604 8.52485
74 2 0.454092 1.35504 8.78334
81 2 12.4078 3.93691 11.6195
148 2 8.07605 5.34931 10.7495
86 2 3.50596 2.01043 9.37323
167 2 0.970001 2.78025 6.49901
90 2 11.3468 0.538348 11.9471
92 2 4.94971 4.60613 11.3812
96 2 3.07855 3.25197 11.7588
98 2 12.1858 4.86155 10.1887
100 2 11.3637 5.88109 12.426
101 2 5.92073 1.57698 7.62917
102 2 9.73989 2.34451 9.3185
103 2 1.92366 2.03547 8.37205
104 2 10.4487 1.86495 6.9508
105 2 9.49931 4.57975 11.8435
107 2 10.4118 3.71256 8.18729
109 2 6.59613 1.00113 10.5905
115 2 4.60243 0.837306 7.26826
122 2 10.6135 5.13592 8.68567
123 2 2.95556 5.36549 10.7773
138 2 10.8108 0.440102 9.01533
150 2 3.31206 4.53384 8.87764
151 2 6.09662 5.72302 6.25063
154 2 10.8235 3.76859 11.4277
156 2 7.54937 6.16875 8.20573
159 2 8.85775 5.73684 7.35834
160 2 5.58843 2.50067 11.7091
125 2 7.63593 0.317073 7.44825
165 2 7.34639 3.0989 7.60061
166 2 7.36389 0.713978 9.38751
171 2 0.465854 4.45137 8.58859
183 2 2.24421 0.744495 9.71051
133 2 5.90387 0.0431055 10.6293
3 1 12.3075 7.29438 2.72821
8 1 5.40689 11.4267 1.83813
9 1 9.24306 10.8885 0.693659
13 1 11.7956 10.5608 5.07927
14 1 3.62365 7.5768 2.66364
19 1 10.2966 8.88054 3.37992
24 1 4.07143 10.6314 3.7707
27 1 6.67805 8.55991 4.26126
33 1 1.66949 12.1589 3.39471
35 1 7.05616 8.91128 0.899053
42 1 1.44759 8.51342 0.768487
48 1 7.84259 11.3425 5.02506
52 1 1.8277 11.5085 0.884454
54 1 10.6218 6.45776 0.76808
67 2 1.0697 7.41435 3.77014
158 2 9.24025 8.25694 5.19501
72 2 4.97264 9.40691 1.26679
73 2 9.7753 11.0159 0.69328
77 2 12.112 10.9865 2.39757
78 2 2.50782 8.81107 2.68655
83 2 9.41072 9.71921 4.12534
88 2 4.72116 10.7765 4.17572
91 2 7.28022 8.59414 3.19305
97 2 0.0118225 12.2657 4.5061
99 2 8.64116 9.31261 0.775335
106 2 12.41 8.34113 0.868959
168 2 9.70445 12.4433 4.87348
112 2 6.55092 11.3314 5.12541
116 2 1.74056 11.6079 0.3726
117 2 4.10937 9.68461 5.85499
130 2 7.16486 6.69758 0.736606
131 2 11.2416 7.56415 2.49143
185 2 10.1931 8.60447 0.314732
136 2 3.85264 12.2972 0.690935
137 2 9.05438 11.8118 2.75601
141 2 11.5697 10.6503 4.90886
142 2 3.39609 7.92445 3.01657
147 2 9.73715 9.6103 1.95701
152 2 2.49414 9.83565 4.32163
155 2 5.61369 7.24582 4.95435
157 2 1.67613 7.81088 5.58503
161 2 3.19848 12.0562 4.35171
163 2 6.73502 8.8478 1.52624
170 2 1.91439 9.81799 0.0431375
176 2 8.35061 9.82648 5.11149
180 2 2.5651 11.9908 2.51906
5 1 4.72244 11.8348 11.6832
7 1 5.41746 9.70319 10.1777
11 1 4.94447 7.70317 11.6825
15 1 9.98247 9.50781 10.3226
29 1 2.45368 6.6064 6.70358
30 1 10.8203 7.78503 7.00497
46 1 8.82524 9.91272 7.41715
47 1 2.27432 11.736 6.70038
49 1 5.63267 8.76627 7.65131
50 1 7.86445 11.5807 11.2446
53 1 4.63225 11.311 6.52867
55 1 1.95049 10.8446 10.3734
57 1 8.60389 7.49425 12.2636
59 1 2.10007 6.34872 11.8802
60 1 0.679859 8.83786 10.3589
61 1 9.36551 12.2145 7.63449
64 1 0.929139 8.85672 7.13047
69 2 4.14234 10.7127 11.3652
71 2 5.41251 9.16703 11.0396
75 2 6.36505 7.15601 11.7209
79 2 10.1746 9.6141 9.66402
93 2 3.40007 7.39581 7.63602
94 2 10.7685 7.28922 6.52668
110 2 8.86836 9.65637 7.21524
192 2 0.2036 10.4776 6.66957
113 2 4.39981 8.51605 6.68057
114 2 8.08412 11.6383 11.751
119 2 2.35843 10.9686 9.83442
121 2 8.11739 7.80085 11.867
124 2 11.6069 9.52115 8.46233
162 2 1.38735 7.43536 8.59504
128 2 0.806868 9.17837 7.08724
87 2 5.47179 6.44514 7.70842
135 2 6.95247 11.0122 9.10189
139 2 4.93719 7.95026 11.8146
143 2 10.5284 9.96296 10.7792
36 1 11.6377 6.41726 11.3757
84 2 8.8177 7.41453 9.09379
164 2 11.4093 7.69125 9.95734
174 2 8.03467 9.01706 8.17563
175 2 1.51367 11.6124 7.04247
177 2 7.36804 8.27211 7.44228
178 2 8.06212 10.9791 10.7197
181 2 5.86601 11.3388 8.06105
189 2 9.74549 11.7407 7.38254
186 2 10.1197 6.5535 7.41154
187 2 2.35344 6.70388 11.8438
188 2 0.984982 9.40243 11.4529
108 2 11.2809 11.2177 12.3935
ITEM: TIMESTEP
200
ITEM: NUMBER OF ATOMS
192
ITEM: BOX BOUNDS xy xz yz pp pp pp
0.0000000000000000e+00 1.2444699999999999e+01 0.0000000000000000e+00
0.0000000000000000e+00 1.2444699999999999e+01 0.0000000000000000e+00
0.0000000000000000e+00 1.2444699999999999e+01 0.0000000000000000e+00
ITEM: ATOMS id type x y z
1 1 12.0492 2.04 2.31942
2 1 5.44814 6.00464 1.84599
4 1 3.2471 3.82367 4.80125
6 1 7.58145 0.136079 2.47809
12 1 3.0738 3.17039 1.82855
16 1 11.0773 4.82032 5.24303
17 1 0.642717 4.01785 0.878013
18 1 0.880598 5.92111 5.30831
21 1 8.3265 4.26783 1.39016
25 1 6.11787 5.13433 4.61787
40 1 9.49585 2.51454 6.20194
134 2 8.07426 1.4825 5.7169
136 2 2.74566 1.64034 0.304018
51 1 5.7321 1.51419 5.14194
56 1 4.6048 2.5812 2.80461
62 1 1.75077 1.64635 4.58076
63 1 10.0967 4.12824 3.45984
65 2 8.58787 0.179185 1.45223
95 2 9.13823 4.1063 5.59871
100 2 12.3146 6.12373 0.633108
97 2 11.844 2.40245 5.39218
80 2 10.4839 5.32814 5.18978
105 2 9.56892 4.19633 0.478236
151 2 6.98806 5.31953 4.71438
169 2 11.3274 0.708659 1.31868
190 2 0.667695 4.15356 4.11188
120 2 4.69688 0.907334 1.49799
126 2 5.43574 2.08497 6.11848
127 2 8.79854 2.58826 3.905
129 2 11.2024 3.11728 3.08067
191 2 9.55923 1.07234 4.17169
132 2 3.10329 4.0011 5.00797
140 2 0.70851 0.678554 2.70489
144 2 8.10298 6.08266 3.11682
145 2 0.761777 4.06678 0.628525
160 2 6.48543 2.59782 0.221086
149 2 5.33532 4.53874 4.42294
153 2 7.14267 2.02794 6.0512
184 2 8.12446 3.11546 2.48485
118 2 11.1292 5.66593 3.16721
111 2 2.40904 0.399692 5.68885
179 2 3.68138 2.81292 3.13651
182 2 8.28551 4.62513 1.12934
125 2 6.14946 0.714894 5.65699
10 1 11.5053 0.0219499 9.38867
20 1 7.9261 5.56158 10.8599
22 1 3.31972 3.98492 8.77695
23 1 5.3636 5.76665 6.65986
26 1 0.305217 1.95446 11.0003
28 1 5.392 5.41594 10.0619
31 1 7.5997 4.41418 6.68986
32 1 5.55005 2.24284 11.8486
34 1 2.65009 6.21005 10.2738
44 1 12.3445 0.797902 12.2865
37 1 5.58493 3.75698 8.51834
38 1 8.60546 1.22504 8.97465
39 1 2.00609 2.30184 6.27646
41 1 8.89885 2.96703 10.178
43 1 10.8442 2.85207 7.06237
58 1 11.2246 5.48247 8.52267
74 2 0.0188802 1.29987 9.42762
81 2 0.198902 3.09952 10.3403
148 2 7.23376 5.02474 9.09075
86 2 4.00934 0.0626735 11.7253
167 2 0.447718 3.84131 6.78528
90 2 11.0814 0.0884931 11.6027
92 2 3.95172 3.64152 11.963
96 2 0.838743 3.73394 11.0356
98 2 11.3685 4.49683 10.0288
133 2 4.78211 0.970329 9.96933
101 2 5.01568 1.2891 7.64828
102 2 10.924 2.39694 9.51891
103 2 1.67904 1.6617 8.97958
104 2 11.6264 0.651073 6.38938
156 2 7.50302 5.92154 7.44348
107 2 9.30902 2.37449 8.19933
109 2 6.30851 2.06509 8.54741
115 2 3.04163 1.77335 8.65804
122 2 11.433 5.78641 8.24741
123 2 4.28265 4.05406 9.93736
45 1 8.15097 1.67778 12.2467
150 2 3.4289 4.21854 8.10967
183 2 3.00595 2.34878 10.7911
154 2 10.0482 3.80696 11.9534
171 2 2.15904 6.05451 9.1
173 2 8.68104 1.7625 11.5723
75 2 7.21148 5.87586 11.2315
175 2 0.496945 0.218096 7.48632
165 2 7.4804 2.88075 9.09139
166 2 8.26948 0.195421 9.90364
85 2 4.55582 4.96724 12.278
29 1 2.72708 6.21474 6.4523
146 2 3.07491 5.33581 12.3906
3 1 0.0808753 7.22485 2.78794
8 1 5.49738 11.6131 1.82436
9 1 9.27225 10.7674 0.201744
13 1 11.5947 10.1801 5.40592
14 1 3.32611 7.2025 3.02544
19 1 10.5196 8.62113 3.42426
24 1 4.46007 10.6749 3.5587
27 1 6.48905 8.54892 4.48717
33 1 1.66615 12.1475 3.32524
35 1 7.30153 8.84482 0.702983
42 1 1.6316 8.49454 0.832214
48 1 7.5319 11.388 5.45061
52 1 1.78706 11.3772 1.09101
54 1 10.902 6.62287 0.614785
67 2 1.44493 8.30279 3.71803
158 2 8.591 7.88373 2.63021
72 2 3.40353 9.39847 1.51961
73 2 10.2415 11.4945 2.3157
77 2 0.675391 11.2871 0.198219
78 2 0.827268 10.5866 2.53843
83 2 9.60674 9.75724 4.44034
88 2 5.21352 9.97491 3.93424
91 2 6.86739 8.47464 3.80634
172 2 12.0777 11.7389 3.99584
99 2 8.95265 9.45132 0.825723
106 2 11.9829 8.49281 0.274928
168 2 10.7269 10.6315 3.71076
177 2 6.59924 6.65633 5.91497
70 2 6.40552 12.2503 1.54139
117 2 4.14147 7.98012 5.52788
130 2 9.05497 6.37316 1.46482
131 2 11.4004 8.06324 2.7829
185 2 12.0909 9.62477 0.598514
89 2 8.78887 7.22816 4.37467
137 2 8.7949 11.659 3.33347
141 2 11.9041 9.7463 5.73087
142 2 3.61029 7.21859 3.09168
147 2 10.2146 8.7708 2.12964
152 2 12.33 10.1924 5.49878
155 2 4.60291 6.79659 4.91818
157 2 1.95429 9.72602 4.70889
161 2 4.72755 12.281 4.57243
163 2 7.42699 10.4726 2.66926
180 2 3.21849 11.9489 3.15987
82 2 0.658607 6.43265 5.07109
76 2 4.09009 7.56745 0.373033
66 2 5.68538 6.41198 2.60484
5 1 4.83808 11.923 11.4791
7 1 5.2081 9.506 10.026
11 1 4.62838 7.70029 11.6375
15 1 10.2524 10.0252 10.3842
116 2 1.85957 12.3357 11.6274
30 1 10.8922 7.82301 6.82869
46 1 8.84083 10.1768 7.22028
47 1 2.48512 11.7588 6.7325
49 1 5.45695 8.37193 7.62242
50 1 7.7046 11.8905 11.4132
53 1 4.62151 11.3308 6.46449
55 1 1.91451 10.7019 10.2384
57 1 8.66171 7.48105 12.1589
59 1 1.80126 6.65178 11.7125
60 1 1.08336 8.8305 10.6337
61 1 9.46487 12.1627 7.60847
64 1 1.16812 8.54203 6.89627
69 2 4.1522 10.0801 11.034
71 2 5.42089 10.2313 8.71599
170 2 3.63519 9.70954 12.3566
79 2 10.4273 8.57524 9.3786
93 2 3.32387 8.36401 9.72588
94 2 11.242 8.2468 7.10498
110 2 8.89619 10.3249 7.64695
192 2 10.9054 12.0659 6.67016
113 2 2.58359 9.27876 6.33802
114 2 7.16508 11.6744 12.2825
119 2 2.53646 11.0206 8.99926
121 2 8.79148 7.57194 11.4561
124 2 10.9716 10.7379 7.76175
162 2 0.300548 8.38286 9.18642
128 2 1.24869 8.56146 7.10533
87 2 5.07604 6.61944 8.6066
135 2 7.89583 11.4619 8.3127
139 2 4.79106 7.44988 11.3063
143 2 10.2108 11.0417 11.639
36 1 11.5647 6.73784 11.6943
84 2 8.22362 9.46455 9.58817
164 2 11.0898 7.52124 9.6345
174 2 6.20217 8.07914 9.6051
159 2 8.4459 7.18612 6.75927
176 2 8.39581 9.11075 6.51001
178 2 8.38733 10.4419 9.99044
181 2 5.65974 11.715 8.43368
189 2 9.07843 12.4436 6.69181
186 2 9.63245 6.87772 6.89928
138 2 10.1274 11.1766 9.5878
188 2 0.524374 8.72956 10.9163
108 2 0.270384 10.1489 10.7537
187 2 1.46966 6.27737 11.9328
68 2 3.54785 6.29897 7.53949
112 2 5.58763 10.4813 6.26923
