ITEM: TIMESTEP
0
ITEM: NUMBER OF ATOMS
192
ITEM: BOX BOUNDS xy xz yz pp pp pp
0.0000000000000000e+00 1.2444699999999999e+01 0.0000000000000000e+00
0.0000000000000000e+00 1.2444699999999999e+01 0.0000000000000000e+00
0.0000000000000000e+00 1.2444699999999999e+01 0.0000000000000000e+00
ITEM: ATOMS id type x y z
120 2 4.74 2.41 2.42
140 2 2.67 3.09 1.05
184 2 6.02 1.57 2.67
51 1 5.94 0.84 5.91
56 1 5.36 2.06 3.14
62 1 1.41 2.32 4.17
126 2 1.76 1.44 4.07
167 2 1.25 2.26 6.18
179 2 5.45 1.07 5.12
190 2 0.92 2.56 3.28
37 1 6.11 3.07 7.96
39 1 1.31 2.02 7.09
74 2 0.27 1.04 8.27
101 2 5.85 2.21 7.53
103 2 2.17 2.43 7.46
115 2 5.48 0.06 6.32
32 1 5.29 1.92 11.56
96 2 4.64 2.37 12.16
160 2 4.84 1.08 11.38
2 1 5.36 6 1.81
12 1 3.64 3.19 1.08
17 1 0.97 4.12 0.84
66 2 5.51 5.51 2.6
76 2 3.84 4.17 1.06
145 2 1.51 4.9 0.53
4 1 3.38 4.28 4.84
18 1 1.24 5.99 4.76
68 2 4.28 4.19 4.46
82 2 0.43 5.51 4.88
132 2 2.96 3.44 4.61
146 2 1.94 5.36 4.61
153 2 6.17 3.63 3.9
22 1 3.23 3.34 8.26
23 1 5.02 6.21 7.29
86 2 4.23 3.22 8.21
87 2 5.27 5.9 8.19
150 2 3.12 4.28 8.41
151 2 5.12 5.54 6.6
162 2 2.02 6.1 8.92
28 1 5.87 5.84 9.79
34 1 2.04 5.49 9.71
81 2 0.68 3.76 12.44
92 2 5.62 4.99 10.13
98 2 1.1 5.3 9.72
123 2 2.15 5.99 11.18
14 1 3.88 8.05 2.51
42 1 1.31 8.49 0.81
78 2 3 8.17 2.14
106 2 0.64 8.13 1.45
142 2 4.27 7.23 2.16
163 2 6.05 8.48 0.61
67 2 0.24 6.8 3.29
155 2 5.96 8.02 4.26
157 2 1.83 6.59 6.16
29 1 2.18 6.91 6.99
49 1 5.82 9.18 7.71
64 1 0.75 9.22 7.39
93 2 3.09 6.66 6.98
113 2 5.59 8.29 7.44
124 2 0.49 9.06 9.13
128 2 1.44 8.49 7.32
11 1 5.01 7.72 11.74
59 1 2.37 6.23 12.1
60 1 0.3 8.77 10.05
71 2 5.37 9.14 10.85
75 2 5.46 7.08 11.15
139 2 4.17 7.28 11.8
187 2 1.86 7.03 12.37
188 2 1.08 9.16 10.59
8 1 5.32 11.19 1.83
52 1 1.88 11.66 0.64
72 2 5.74 10.31 1.64
116 2 0.99 11.99 0.41
136 2 4.93 11.46 0.96
170 2 1.39 9.44 0.85
180 2 1.92 11.57 1.62
24 1 3.94 10.55 3.95
33 1 1.53 12.16 3.45
88 2 4.44 10.9 3.14
97 2 0.74 11.69 3.86
117 2 4.54 10.95 5.79
152 2 3.97 9.58 3.89
161 2 2.38 11.71 3.7
47 1 2.01 11.54 6.89
53 1 4.66 11.28 6.73
111 2 1.76 12.44 6.8
175 2 2.97 11.66 6.88
181 2 5.05 10.55 7.26
192 2 1.11 10.09 7.21
5 1 4.54 11.73 11.9
7 1 5.73 9.9 10.31
55 1 2.01 11.07 10.33
69 2 3.63 11.56 11.76
119 2 2.52 10.55 9.76
133 2 5.04 11.17 11.3
135 2 5.94 9.68 9.37
183 2 1.73 11.85 9.82
1 1 11.83 2.56 2.18
6 1 7.34 0.18 2.18
44 1 11.7 0.33 0.6
45 1 7.63 2.04 0.28
65 2 11.09 2.87 2.74
172 2 11.38 0.95 1.34
173 2 7.43 1.82 1.24
40 1 9.48 2.11 5.92
191 2 9.34 3.01 4.17
10 1 12.06 0.64 8.92
104 2 10.1 2.53 6.55
166 2 7.52 1.99 9.1
168 2 9.31 1.19 6.35
26 1 12.18 2.35 11.11
38 1 8.22 1.38 9.43
90 2 11.88 1.61 11.75
102 2 8.81 2.01 9.89
109 2 6.83 1.84 12.19
138 2 12.07 1.36 9.54
154 2 11.4 2.92 10.99
169 2 8.84 2.9 11.69
21 1 8.06 4.72 1.3
85 2 7.92 3.83 0.8
129 2 12.25 3.32 1.68
130 2 6.27 6.22 1.56
149 2 8.58 4.29 2.01
182 2 9.73 5.52 1.11
16 1 11 5.31 5.17
25 1 6.25 4.56 4.21
63 1 9.69 3.69 3.56
80 2 11.18 4.84 6.05
89 2 6.93 4.56 4.89
95 2 8.4 3.45 6.18
127 2 10.05 4.44 4.1
144 2 10.68 6.2 5.44
31 1 8.03 4.28 6.57
43 1 11.25 3.48 7.51
58 1 10.51 5.81 8.66
107 2 11.12 4.2 8.14
159 2 8.74 4.67 7.12
165 2 6.81 3.46 7.31
171 2 12.13 3.22 7.5
20 1 8.39 5.72 10.39
36 1 11.75 6.18 11.01
41 1 9.33 3.34 10.97
84 2 9.08 5.89 9.68
100 2 11.36 6.2 11.9
105 2 9.07 4.29 10.91
122 2 10.89 6.06 9.58
156 2 6.81 5.9 9.83
3 1 12.17 7.34 2.71
35 1 6.66 9.05 1.21
54 1 10.32 6.26 0.89
91 2 6.79 8.54 3.09
99 2 7.54 9.11 0.83
118 2 10.94 6.29 1.65
185 2 9.34 7.2 0.21
19 1 10.1 9.09 3.32
27 1 6.76 8.57 4.07
131 2 11.5 7.85 3.14
30 1 10.89 7.69 6.78
94 2 11.73 8.22 6.86
158 2 10.19 8.36 6.88
186 2 10.71 6.56 7.97
15 1 9.82 9.16 10.18
57 1 8.56 7.59 12.17
121 2 8.84 8.27 11.56
143 2 10.8 9.22 10.18
148 2 8.41 6.43 11.04
164 2 12.12 7.05 10.81
9 1 9.39 11.14 1.1
70 2 6.53 12.07 1.99
73 2 8.71 11.07 0.41
108 2 11.03 12.03 0.58
134 2 7.6 12.39 3.03
137 2 8.92 11.68 1.69
147 2 10.02 9.64 2.47
13 1 11.88 10.9 4.7
48 1 8.02 11.27 4.66
77 2 11.55 10.19 4.15
83 2 9.51 9.48 3.94
112 2 7.37 11.88 5.08
141 2 11.89 10.59 5.56
176 2 7.5 10.43 4.47
46 1 8.86 9.52 7.4
61 1 9.47 12.13 7.57
110 2 9.13 10.45 7.25
125 2 8.69 12.34 8.15
174 2 9.15 9.43 8.28
177 2 6.69 9.4 7.47
189 2 10.19 12.39 8.15
50 1 8.11 11.19 11.22
79 2 9.53 10.04 10.56
114 2 8.14 12.12 10.86
178 2 7.29 10.77 10.93
ITEM: TIMESTEP
100
ITEM: NUMBER OF ATOMS
192
ITEM: BOX BOUNDS xy xz yz pp pp pp
0.0000000000000000e+00 1.2444699999999999e+01 0.0000000000000000e+00
0.0000000000000000e+00 1.2444699999999999e+01 0.0000000000000000e+00
0.0000000000000000e+00 1.2444699999999999e+01 0.0000000000000000e+00
ITEM: ATOMS id type x y z
120 2 4.62933 2.61108 2.55615
129 2 0.0708339 2.80019 1.99891
184 2 5.93772 1.57884 2.73764
51 1 5.84001 1.28682 5.57559
190 2 0.68954 2.3099 4.32918
62 1 1.71632 2.08859 4.43493
126 2 1.6905 1.16708 4.10779
167 2 1.66644 2.00309 6.01421
179 2 5.4805 1.6085 4.73248
115 2 5.33017 0.538282 5.80326
56 1 5.3685 2.25599 3.12177
37 1 5.96581 2.93294 8.04429
39 1 1.44047 2.02812 6.99428
111 2 1.73084 0.121126 7.09613
101 2 5.85229 2.54483 7.15046
103 2 2.25824 2.44587 7.37971
74 2 0.00379699 0.725402 8.22766
32 1 5.28786 2.09668 11.8004
96 2 4.57737 2.4838 12.3683
160 2 5.03709 1.13095 11.5738
2 1 5.38765 5.93645 1.80759
12 1 3.56463 3.22822 1.3093
17 1 0.780361 3.96737 0.53646
66 2 5.90098 5.70562 2.55845
76 2 3.92116 4.17689 1.45227
145 2 1.19394 4.81375 0.168628
140 2 2.62383 3.41111 1.17038
130 2 6.03201 6.07619 1.08024
4 1 3.04803 4.37348 4.77534
18 1 1.16955 6.13154 4.66561
68 2 4.001 4.53665 4.60572
82 2 0.272607 5.74779 4.79753
132 2 2.82984 3.55253 4.28324
146 2 1.79186 5.33046 4.54646
153 2 5.94082 3.90668 3.86308
25 1 6.11447 4.69256 4.42858
22 1 3.19282 3.44774 8.59572
151 2 5.57195 5.70222 6.40555
86 2 4.13489 3.67246 8.44823
87 2 5.25575 5.9706 7.96138
150 2 2.8119 4.20549 9.07419
162 2 2.02942 6.20506 8.56084
28 1 5.63844 5.77681 9.9778
34 1 1.92769 5.84613 9.4682
81 2 0.494142 3.44972 12.217
92 2 5.21776 4.92852 10.1529
98 2 1.00839 5.90023 9.74999
14 1 3.46027 7.98792 2.84378
42 1 1.50125 8.65108 0.732537
78 2 2.96876 8.07267 2.00102
106 2 0.883357 8.28253 1.39891
142 2 4.18481 7.32784 2.5561
163 2 6.065 8.69248 0.625636
187 2 1.97116 7.16178 0.114906
67 2 0.328941 6.85162 3.29012
155 2 5.89556 8.27226 4.25233
29 1 2.48558 6.92144 7.09285
49 1 5.94706 8.88399 7.6244
64 1 0.686026 8.97495 7.17812
93 2 3.34343 6.51821 6.96505
113 2 5.72415 7.99942 7.32576
23 1 5.1117 6.28819 7.02241
128 2 1.47605 8.29121 7.0841
157 2 1.97445 6.46437 6.36789
11 1 5.18577 7.68628 11.7473
59 1 2.46298 6.31893 12.2966
60 1 0.272059 8.83421 10.2334
71 2 5.46306 9.12697 10.8019
75 2 5.14416 7.03052 10.9289
139 2 4.35344 7.49529 12.1607
123 2 2.35857 6.2634 11.3401
124 2 0.515332 8.62834 9.34321
8 1 5.41158 11.2083 1.72028
52 1 1.84593 11.2976 0.964058
72 2 5.98767 10.4577 1.57973
116 2 1.01839 11.6356 0.585109
136 2 5.06005 11.4759 0.823326
170 2 1.61683 9.57788 0.949159
180 2 1.83154 11.4909 1.94352
24 1 3.85795 10.6323 3.98096
33 1 1.76934 12.0213 3.7134
88 2 4.46115 11.0065 3.24071
97 2 1.01887 11.512 4.01984
117 2 4.43624 10.8896 5.43867
152 2 3.78643 9.65458 3.78921
161 2 2.61612 11.5996 3.94544
47 1 1.90462 11.6977 6.7148
53 1 4.60148 11.0795 6.41318
192 2 1.06658 9.87189 7.0861
175 2 2.94671 11.6018 6.73529
181 2 4.99525 10.2813 6.78121
5 1 4.5786 11.935 11.6212
7 1 5.73902 9.91083 10.3225
55 1 2.04375 11.029 10.3954
69 2 3.63894 12.0738 11.6049
119 2 2.57314 10.8713 9.66301
133 2 4.76214 11.1739 10.962
135 2 5.57447 9.66217 9.38409
183 2 1.37588 11.7023 10.126
188 2 0.819371 9.69972 10.2835
1 1 11.8373 2.22788 2.44784
6 1 7.60702 0.283902 2.64664
44 1 11.864 0.36155 0.455013
45 1 7.82088 1.98349 0.0478767
65 2 11.0207 2.72775 2.64385
172 2 11.9633 1.03799 1.13727
173 2 8.11038 1.03582 0.246378
40 1 9.43276 2.17645 5.92109
10 1 11.8482 0.400561 8.97165
104 2 10.1217 2.31601 6.59318
166 2 7.42944 1.6687 8.93561
125 2 9.18842 0.341286 8.27814
38 1 8.24463 1.25628 9.2748
168 2 9.08768 1.28283 6.28031
26 1 11.9436 2.36823 11.1687
169 2 8.84513 2.77328 11.5608
90 2 11.8982 1.59323 11.6739
102 2 8.7056 1.95136 9.78739
109 2 6.83273 1.94085 12.2768
138 2 12.0256 0.930312 9.72849
154 2 11.0546 2.69084 10.9785
41 1 9.42152 3.06256 10.813
21 1 8.27799 4.5123 1.45886
85 2 7.94826 3.61902 1.09956
149 2 8.68895 4.05307 2.22951
182 2 10.0868 5.38165 1.25296
54 1 10.4992 6.1944 0.998856
16 1 11.133 5.24482 5.21508
127 2 10.1675 4.3769 3.81401
63 1 9.69866 3.53511 3.44575
80 2 11.1567 4.43035 5.87535
89 2 6.879 4.47188 4.97132
144 2 10.7995 5.98781 5.8099
191 2 9.34074 3.13141 4.25629
31 1 7.92185 4.40491 6.65123
43 1 11.1791 3.46889 7.28706
58 1 10.5969 5.59727 8.56191
107 2 11.0943 4.2566 7.90495
159 2 8.4078 5.12559 7.11389
165 2 6.55151 3.68127 8.04233
95 2 8.46681 3.57807 6.5339
171 2 12.0266 3.11189 7.30584
20 1 8.3342 5.71188 10.2601
156 2 6.5973 5.60152 10.2102
100 2 11.369 6.18846 11.7134
84 2 9.16984 5.75384 9.72383
105 2 9.10379 3.89003 10.4595
122 2 11.0682 6.02654 9.36559
3 1 12.2227 7.36494 2.65997
35 1 6.88294 8.96475 1.18653
185 2 9.25275 7.15279 0.144899
118 2 11.2806 6.4437 1.54206
99 2 7.57885 8.50743 0.697371
91 2 6.81998 8.734 3.08355
19 1 10.2371 9.25693 3.18214
27 1 6.75766 8.66463 4.06222
83 2 9.56475 8.95414 3.78595
131 2 11.8352 8.07291 3.15484
30 1 10.5958 7.70721 6.82503
94 2 11.4276 8.27231 6.99969
158 2 9.85558 8.30402 7.04454
186 2 10.7328 6.31208 7.97971
177 2 6.86613 8.99314 7.43228
36 1 11.7076 6.42813 10.8466
57 1 8.72586 7.82053 12.0627
121 2 9.22135 8.51425 11.5387
164 2 12.1944 7.24042 10.9916
148 2 8.36532 6.47067 10.9797
9 1 9.49472 10.8802 1.073
70 2 6.77089 12.2275 2.32413
73 2 8.95552 10.7513 0.252707
137 2 8.91244 11.4393 1.54387
147 2 9.91482 9.73673 2.3609
108 2 11.0865 12.2334 0.613897
13 1 11.962 10.7616 4.76527
48 1 7.67707 11.3058 4.80422
77 2 11.2691 10.4388 4.19528
134 2 7.74042 12.3857 3.56844
112 2 7.43449 11.8297 5.58258
141 2 12.2891 9.99985 5.18044
176 2 7.12427 10.4589 4.81141
46 1 8.6586 9.52895 7.53413
61 1 9.37039 12.2781 7.42028
110 2 8.76471 10.5425 7.36428
189 2 10.2947 12.1297 7.44172
174 2 8.92449 9.43815 8.42356
50 1 8.00069 11.4038 11.0619
79 2 9.39785 10.3237 10.5273
114 2 7.92184 12.2115 10.4246
178 2 7.19287 10.8395 10.8595
15 1 9.85612 9.43257 10.2934
143 2 10.8463 9.37552 10.356
ITEM: TIMESTEP
200
ITEM: NUMBER OF ATOMS
192
ITEM: BOX BOUNDS xy xz yz pp pp pp
0.0000000000000000e+00 1.2444699999999999e+01 0.0000000000000000e+00
0.0000000000000000e+00 1.2444699999999999e+01 0.0000000000000000e+00
0.0000000000000000e+00 1.2444699999999999e+01 0.0000000000000000e+00
ITEM: ATOMS id type x y z
120 2 4.82697 2.37709 2.49246
96 2 4.70748 2.92816 0.057075
56 1 5.58148 2.50328 3.09857
51 1 5.67172 1.64586 5.74875
190 2 1.16321 2.09319 3.62275
62 1 1.76121 2.0228 4.44035
126 2 1.93355 1.05032 4.22206
115 2 5.45829 0.714947 5.73789
179 2 5.7488 1.86148 4.82637
37 1 5.87406 2.63525 8.12034
39 1 1.32052 2.03931 7.37457
111 2 1.84819 0.0263382 6.82701
101 2 5.59294 1.96318 7.47493
103 2 1.9611 2.53244 7.92659
167 2 1.56927 2.27823 6.41972
171 2 0.0700275 2.83329 7.24159
74 2 0.174314 0.558693 8.39691
32 1 5.25244 2.3604 11.9734
160 2 4.91031 1.43485 11.9106
2 1 5.23649 5.77777 1.97235
12 1 3.54631 3.52601 1.40846
17 1 0.896378 3.77589 0.351056
66 2 5.46149 5.57839 2.85972
76 2 3.7807 4.51105 1.38438
145 2 0.80521 4.73199 0.197107
140 2 2.63393 3.57749 1.13338
130 2 5.9188 5.36883 1.42888
4 1 2.94266 4.46629 4.65995
25 1 5.94724 4.75971 4.58955
68 2 3.81862 4.37438 4.30741
82 2 0.207417 5.94153 4.84178
132 2 2.45286 3.5933 4.51975
146 2 1.66104 5.68304 4.34493
153 2 5.91949 3.87452 4.20087
151 2 5.29104 5.8368 6.16665
22 1 3.00664 3.38582 8.90031
150 2 2.85125 4.35503 8.96264
86 2 3.89916 3.18157 8.63832
87 2 5.46982 5.69843 7.67601
28 1 5.41139 5.50047 9.81556
34 1 1.85144 6.01936 9.34862
81 2 0.497936 3.3232 12.0067
92 2 5.07417 4.78849 10.4027
98 2 0.941725 6.04444 9.76108
123 2 2.56464 6.20779 11.5536
14 1 3.18919 8.02015 3.109
42 1 1.7029 8.59488 0.909973
78 2 2.53819 8.18861 2.35584
106 2 0.937577 8.23294 1.43512
142 2 3.76307 7.30296 2.69812
187 2 2.14347 7.08636 0.285574
163 2 6.05789 8.22743 0.810959
59 1 2.77609 6.35399 0.0313883
67 2 0.368416 7.24578 3.28965
155 2 6.0413 8.57247 4.37976
18 1 1.07995 6.39606 4.70053
157 2 2.30167 6.51496 6.11753
29 1 2.64386 7.02794 6.90343
49 1 6.03634 8.92202 7.50986
64 1 0.620686 8.92814 7.13847
93 2 3.56556 6.70316 6.93704
113 2 5.74837 7.98763 7.30418
23 1 5.34915 6.40343 6.96424
128 2 1.29551 8.33264 7.01128
162 2 1.95998 6.53088 8.55452
11 1 5.08118 7.59907 11.8861
188 2 0.847736 9.23588 10.6306
60 1 0.0205782 9.07195 10.1008
139 2 4.18739 7.24668 12.094
75 2 5.32315 7.00236 11.1345
8 1 5.68336 11.3101 1.63373
52 1 1.71474 11.2324 1.25108
72 2 6.02253 10.4559 1.26841
116 2 1.09088 11.8143 0.785753
136 2 5.05301 11.6931 0.927239
170 2 1.63923 9.60794 1.04698
180 2 1.75649 11.5034 2.20139
88 2 4.6625 10.7141 2.98137
24 1 4.07655 10.3073 3.58857
33 1 1.71023 11.8427 3.75157
141 2 0.106844 9.74215 5.20286
97 2 0.918704 11.2752 3.99251
117 2 4.67829 10.7404 5.28
152 2 4.00569 9.37568 3.26821
161 2 2.50224 11.314 3.97424
53 1 4.74418 10.9095 6.21117
47 1 1.78067 11.5394 7.06262
124 2 0.281479 9.4281 9.28681
192 2 1.0825 9.74621 7.07328
175 2 2.70758 11.1266 6.87822
181 2 5.25971 10.1855 6.62747
135 2 5.67881 9.55353 9.32188
5 1 4.27299 12.1038 11.5249
7 1 5.80967 9.9492 10.2076
55 1 1.95705 11.2053 10.2793
69 2 3.42424 11.6927 11.3563
119 2 2.38052 11.5057 9.45299
133 2 4.9242 11.5109 10.9774
71 2 5.31687 9.40256 10.7943
183 2 1.04566 11.5172 10.1121
1 1 12.1175 1.98699 2.66967
6 1 7.85444 0.286963 2.68354
44 1 11.909 0.174587 0.564288
129 2 12.2266 2.54187 1.85761
184 2 6.38551 2.07219 2.72195
172 2 11.9566 0.630816 1.42149
40 1 9.11686 2.20055 5.84573
191 2 9.45808 2.84776 4.3886
104 2 10.0341 2.48092 6.04807
168 2 9.17684 1.21218 5.75975
65 2 11.4124 2.40538 3.16888
10 1 11.8933 0.197568 8.99155
38 1 7.87523 1.13432 9.11085
166 2 6.98423 1.50863 9.00649
125 2 8.65474 0.103377 7.60417
102 2 8.40404 1.91932 9.29805
26 1 11.9078 2.31811 11.034
169 2 8.80331 2.68268 11.2474
90 2 11.964 1.52567 11.5906
109 2 6.98703 2.08787 12.3843
173 2 7.82933 0.853887 12.2654
138 2 11.778 0.859188 9.66517
154 2 10.9221 2.51107 11.0411
41 1 9.36356 3.09199 10.511
45 1 7.93996 1.82504 12.4311
21 1 8.44593 4.35554 1.56213
85 2 8.315 3.52655 1.01138
149 2 8.72072 4.06305 2.45915
182 2 9.82206 5.78138 1.20615
54 1 10.6247 6.09836 0.783048
16 1 11.1051 5.23997 5.29531
127 2 10.3715 4.06857 4.23334
63 1 9.85584 3.38978 3.71286
80 2 11.3412 4.72581 6.04214
89 2 6.68634 4.78747 5.2006
144 2 10.7677 6.10351 5.65835
31 1 7.81634 4.552 6.72994
43 1 11.6692 3.3753 7.06424
58 1 10.4348 5.71861 8.62726
107 2 11.2752 3.68942 7.93134
159 2 8.47519 5.27029 6.75012
165 2 6.38252 3.28576 7.65641
95 2 8.28241 3.80565 6.27822
20 1 8.26862 5.64293 10.1371
156 2 6.39089 5.46241 9.94626
122 2 10.919 5.81446 9.48289
84 2 9.03037 5.70976 9.50805
105 2 8.94231 3.92541 10.3644
3 1 12.3787 7.66852 2.49382
35 1 6.81789 8.74581 1.23553
131 2 11.7827 8.36816 2.73429
118 2 11.2795 6.27488 1.47479
99 2 7.50293 8.34503 0.696674
91 2 6.65947 8.86694 3.00644
19 1 10.274 9.32265 3.10541
27 1 6.82266 8.88452 3.95979
83 2 9.35933 8.92736 3.22831
30 1 10.415 7.63381 6.78205
94 2 11.3493 8.01586 6.90103
158 2 9.79624 8.30766 7.13958
186 2 10.6237 6.46133 8.0508
177 2 7.01805 8.80566 7.49256
36 1 11.9109 6.51483 10.7215
57 1 8.96834 7.84789 12.0015
121 2 9.33202 8.547 11.4569
164 2 11.9427 7.47025 10.5528
148 2 8.44769 6.2351 10.8878
100 2 11.5979 6.38781 11.6271
185 2 9.71052 7.33886 12.3865
9 1 9.55256 11.1213 1.2335
70 2 6.99488 12.3601 2.2164
73 2 8.84198 10.6859 0.760206
137 2 9.08236 11.8286 1.70447
147 2 10.1869 10.019 2.40796
108 2 11.0969 12.0566 0.61069
13 1 12.1505 10.5643 4.81099
48 1 7.44834 11.2784 5.17023
77 2 11.5152 10.2284 4.19386
134 2 7.83409 12.2762 3.61699
112 2 6.76569 11.2668 5.84897
176 2 7.38716 10.3457 4.72607
46 1 8.6152 9.49203 7.93305
61 1 9.39298 12.1452 7.11857
110 2 8.72926 10.4427 7.62131
189 2 10.0932 12.1371 7.73986
174 2 9.01621 9.49422 8.84521
50 1 8.05414 11.5885 10.7363
79 2 9.26277 10.5755 10.431
114 2 7.90027 12.3552 10.0893
178 2 7.32167 10.9476 10.5129
15 1 9.82998 9.76119 10.2145
143 2 10.7712 10.0424 10.3287
ITEM: TIMESTEP
300
ITEM: NUMBER OF ATOMS
192
ITEM: BOX BOUNDS xy xz yz pp pp pp
0.0000000000000000e+00 1.2444699999999999e+01 0.0000000000000000e+00
0.0000000000000000e+00 1.2444699999999999e+01 0.0000000000000000e+00
0.0000000000000000e+00 1.2444699999999999e+01 0.0000000000000000e+00
ITEM: ATOMS id type x y z
96 2 4.69067 2.87311 0.448201
56 1 6.02594 2.67756 3.07915
129 2 0.411994 2.74714 2.09563
120 2 5.50942 2.93298 2.32586
51 1 5.29112 1.41387 5.82273
190 2 0.980979 2.04342 4.18218
62 1 1.72852 1.99297 4.72888
126 2 2.14218 1.34477 4.0895
115 2 5.04125 0.482025 6.01877
179 2 5.15385 1.55708 4.90437
37 1 5.58453 2.64363 8.34378
39 1 1.47893 1.76188 7.43665
167 2 1.85083 1.85056 6.51484
101 2 5.51254 2.65062 7.39153
103 2 1.98801 2.22638 8.1252
32 1 5.23824 2.56103 12.1359
160 2 4.76169 1.84074 11.6548
81 2 0.617458 3.03307 12.1245
2 1 5.09682 5.68178 2.31392
12 1 3.5979 3.64533 1.36743
17 1 1.00928 3.55029 0.444026
130 2 5.87966 5.84665 1.79967
76 2 3.94892 4.55209 1.62086
145 2 0.749142 4.43959 0.415034
140 2 2.88061 3.76472 0.758538
4 1 2.81218 4.5827 4.44356
25 1 5.94587 4.89462 4.68696
68 2 3.54087 4.81115 4.98356
82 2 0.130709 6.16078 4.93454
132 2 2.61529 3.60192 4.45913
146 2 1.49574 5.86083 4.355
153 2 5.94379 4.01732 4.29466
66 2 5.38452 5.55822 3.22308
22 1 2.82947 3.29528 9.19079
165 2 5.575 3.58942 8.52338
86 2 3.69377 3.21575 8.85403
87 2 5.16419 6.13798 7.96966
151 2 5.69615 5.74032 6.46209
28 1 5.52915 5.25601 9.60807
34 1 2.11118 5.9169 9.58969
150 2 2.63296 4.24772 9.38316
92 2 5.22954 4.74559 10.4018
123 2 2.72035 6.14114 11.3748
98 2 1.14521 6.0798 9.71479
187 2 2.3175 6.97431 0.12397
42 1 1.83089 8.6027 0.902288
78 2 2.55071 7.96341 2.40375
106 2 0.986678 8.4406 1.34378
142 2 3.71863 7.00798 2.82412
67 2 0.193051 7.23857 3.20189
14 1 3.18543 7.76644 3.11229
18 1 0.974232 6.58147 4.60986
157 2 2.19101 7.22703 5.77042
29 1 2.60121 7.27762 6.70623
49 1 6.03766 9.11033 7.6491
64 1 0.442656 9.04003 7.27552
93 2 3.59626 7.14368 6.56319
113 2 5.9812 8.1981 7.21001
23 1 5.22129 6.42003 7.00055
128 2 1.19924 8.37487 7.19195
162 2 2.31953 6.30336 8.75642
11 1 5.08467 7.61062 11.7355
139 2 4.2696 7.05561 12.1004
75 2 5.4575 6.96842 11.0772
71 2 5.80663 9.23703 10.7085
59 1 2.88872 6.23937 12.3173
8 1 5.89518 11.3406 1.29657
52 1 1.6636 11.2913 1.09575
88 2 4.68107 10.6619 2.71244
116 2 0.885492 11.7251 0.709298
136 2 5.33573 11.6883 0.542312
170 2 1.86967 9.57636 0.777439
180 2 1.73798 11.4475 2.04593
72 2 6.20841 10.4468 1.04537
24 1 4.23088 10.3175 3.47768
33 1 1.99742 11.6475 3.95354
53 1 4.71833 10.9329 6.04071
97 2 1.31189 10.9661 4.19961
117 2 4.56296 10.5032 5.21214
152 2 3.96238 9.34821 3.30745
161 2 2.8495 11.1796 3.91769
47 1 2.19904 11.1992 7.4915
111 2 1.62253 11.8885 7.11825
192 2 0.945704 9.85365 7.49436
175 2 3.08155 11.1594 6.97956
181 2 5.20808 10.2184 6.52068
119 2 1.97108 11.3738 9.12091
5 1 4.20795 12.1963 11.6904
7 1 5.80835 10.002 10.1882
55 1 1.76535 11.5516 10.0576
69 2 3.29233 12.0938 11.4518
183 2 1.10441 12.2555 9.92969
133 2 4.67876 11.5247 11.0571
188 2 0.466984 10.0871 9.86385
135 2 5.92837 9.60022 9.33416
1 1 12.2814 2.09579 2.56234
6 1 7.74136 0.204913 2.87546
44 1 11.7478 0.181957 0.548539
172 2 11.9782 0.709712 1.36017
184 2 6.55632 1.91829 2.71096
65 2 11.509 2.62281 2.87111
40 1 9.05883 2.14977 6.07147
191 2 9.98952 2.689 4.21746
168 2 8.65344 1.24522 6.13136
10 1 11.9429 0.035151 8.98701
38 1 7.77672 1.05466 8.74428
166 2 6.8572 1.35936 8.4418
171 2 12.3561 2.8876 7.15661
102 2 8.16173 1.86325 9.19552
104 2 9.87116 2.05977 6.57344
74 2 12.2985 0.550114 8.22339
26 1 11.949 1.88888 10.9726
169 2 8.68267 2.6038 11.0789
90 2 11.5767 1.27313 11.7155
109 2 6.90343 1.95372 12.3308
173 2 7.75346 0.846828 11.864
138 2 11.7182 0.63685 9.7183
154 2 11.1704 2.49101 10.7248
45 1 7.84881 1.75814 12.2404
41 1 9.01527 3.04535 10.2676
21 1 8.7234 4.2629 1.61126
85 2 8.21287 3.70468 1.01486
149 2 8.91367 3.8988 2.47459
182 2 10.1646 5.3368 0.72436
54 1 10.7952 6.05068 0.584123
16 1 11.066 5.38103 5.26989
127 2 10.597 4.15236 4.13645
63 1 10.2216 3.38262 3.60199
80 2 11.1727 4.7495 6.03242
89 2 6.71894 4.89406 5.26751
31 1 7.66181 4.5139 6.6598
43 1 11.5206 3.39221 7.06136
58 1 10.2501 5.72279 8.60428
107 2 11.4723 4.09492 7.72551
159 2 8.37546 4.8482 7.1804
95 2 8.1029 3.65689 6.41279
20 1 7.98206 5.6886 10.1889
156 2 6.46807 5.43483 9.79426
105 2 8.78879 3.94825 10.407
84 2 8.63107 5.71604 9.46316
122 2 10.8874 5.71256 9.34033
3 1 12.1677 7.60435 2.39022
35 1 6.81991 8.57555 1.12264
131 2 11.5702 8.34617 2.66643
118 2 11.1094 6.43455 1.4409
99 2 7.66266 8.4576 0.576015
91 2 7.07837 8.5543 2.97888
163 2 6.23484 8.17278 0.484046
27 1 7.17638 8.87881 3.86535
83 2 9.45159 8.95976 3.63675
155 2 6.24746 9.10327 4.06804
144 2 10.7459 6.24497 5.64649
30 1 10.357 7.72643 6.7795
94 2 11.3361 8.00716 6.9289
158 2 9.80329 8.43737 7.1619
186 2 10.2803 6.57876 7.99152
124 2 12.3152 8.88443 9.09325
36 1 12.1146 6.59817 10.6587
57 1 8.85949 7.84787 11.8985
121 2 9.37199 8.5505 11.4499
164 2 12.088 7.57961 10.7941
60 1 12.281 9.31591 9.92737
100 2 11.6588 6.23238 11.4942
148 2 8.24882 6.41768 10.7348
185 2 9.59634 7.38636 12.3595
9 1 9.59125 11.465 1.30307
70 2 7.09772 12.2478 2.36516
73 2 9.21732 11.5047 0.434849
137 2 9.16932 12.1235 1.92275
147 2 9.78029 9.95232 2.488
108 2 10.9574 12.1599 0.940691
19 1 10.2152 9.34321 3.10839
13 1 12.2307 10.2037 4.85891
48 1 7.53988 11.3183 5.3133
77 2 11.5436 9.94842 4.28727
141 2 12.062 9.71786 5.73811
112 2 6.66747 11.5898 5.61637
176 2 7.44023 10.4293 4.83787
134 2 7.79993 12.1903 3.7609
46 1 8.82963 9.42632 7.8309
61 1 9.39356 11.9908 7.2883
110 2 8.9906 10.2888 7.47121
189 2 10.2738 12.2081 7.57772
174 2 8.92577 9.49198 8.8159
177 2 6.94095 9.4738 7.38624
125 2 8.83508 12.3877 7.9541
50 1 7.87296 11.7686 10.7471
79 2 9.4223 10.7881 10.4164
114 2 7.64845 12.3272 9.96006
178 2 7.16945 11.0673 10.7419
15 1 9.83259 9.94685 10.4381
143 2 10.8156 10.0587 10.2094
ITEM: TIMESTEP
400
ITEM: NUMBER OF ATOMS
192
ITEM: BOX BOUNDS xy xz yz pp pp pp
0.0000000000000000e+00 1.2444699999999999e+01 0.0000000000000000e+00
0.0000000000000000e+00 1.2444699999999999e+01 0.0000000000000000e+00
0.0000000000000000e+00 1.2444699999999999e+01 0.0000000000000000e+00
ITEM: ATOMS id type x y z
96 2 4.78262 2.96695 0.264243
120 2 5.58504 2.57811 2.69313
129 2 0.529071 2.90561 1.97856
1 1 0.177845 2.12618 2.52883
51 1 4.84074 1.28135 5.83552
190 2 1.20709 1.98295 4.01544
62 1 1.73817 1.86676 4.80972
126 2 1.89445 0.854629 4.65488
115 2 4.74695 0.297219 5.77286
179 2 5.51114 1.55011 5.19203
37 1 5.04177 2.72434 8.3423
39 1 1.33242 1.28655 7.46748
167 2 1.38263 1.61107 6.5256
101 2 4.77544 2.42915 7.49153
103 2 1.84028 1.85742 8.07256
74 2 0.00192161 0.519892 7.96756
32 1 5.24632 2.55615 11.9071
160 2 4.93546 1.61223 11.8905
81 2 0.954383 2.95123 11.9275
22 1 2.57108 2.9598 9.45774
86 2 3.51639 2.86935 9.3485
2 1 5.05235 5.95557 2.47928
12 1 3.76678 3.55724 1.47812
17 1 1.01482 3.39649 0.368093
140 2 2.84973 3.63214 1.25183
76 2 4.11479 4.37133 1.91665
145 2 0.495586 4.18825 0.272062
4 1 2.6998 4.75893 4.30338
25 1 6.00021 4.8334 4.77156
68 2 3.58521 4.70913 4.74858
66 2 5.42993 5.76819 3.4068
132 2 2.33089 3.83278 4.47715
146 2 1.46487 5.8642 4.14426
82 2 0.0473045 6.21569 4.76878
87 2 5.28196 6.14131 8.03295
165 2 5.54703 3.5398 8.19353
28 1 5.59199 5.17959 9.55336
34 1 2.3292 5.89388 9.60101
150 2 2.45587 3.93325 9.53761
92 2 5.1796 4.52562 10.1485
123 2 2.77809 6.02557 11.275
98 2 1.38106 5.92928 9.61173
67 2 0.0869616 7.1256 2.94399
42 1 1.68027 8.534 0.811611
78 2 2.99735 7.78943 2.20947
106 2 0.888458 8.38526 1.34274
142 2 4.17143 7.11147 3.05974
14 1 3.46602 7.85655 3.07578
130 2 5.79518 6.28584 1.94667
157 2 1.92785 7.14678 5.88959
152 2 4.18216 9.15742 3.41391
18 1 0.868312 6.62173 4.39844
29 1 2.33128 7.52745 6.75267
49 1 6.08875 9.29138 7.58837
64 1 0.497245 9.07886 7.37121
93 2 3.23902 7.14155 6.94337
113 2 5.79477 8.3432 7.53248
23 1 4.91854 6.79535 7.34969
128 2 1.14872 8.29854 7.3733
162 2 2.53875 6.65908 9.08674
151 2 5.18591 6.58054 6.42609
11 1 5.25527 7.58043 11.3801
139 2 4.56382 7.05292 11.8325
75 2 5.53786 6.94388 10.6452
71 2 5.64332 9.20064 10.6819
187 2 2.40116 7.08533 12.3082
59 1 2.90728 6.26636 12.1886
8 1 5.9511 11.1079 1.25783
52 1 1.67671 11.3637 0.88703
88 2 5.02303 10.1058 2.57857
116 2 0.740962 11.7132 0.895575
136 2 5.48279 11.4224 0.45148
170 2 1.72747 9.49207 0.623748
180 2 2.01888 11.6084 1.75447
24 1 4.55804 10.0807 3.39771
33 1 2.16253 11.6997 4.08628
53 1 4.67033 11.0151 6.06807
97 2 1.36652 11.2242 4.43536
117 2 4.57798 10.6341 5.17162
161 2 2.70037 10.9416 3.8081
141 2 0.274838 9.48506 5.38826
47 1 2.5537 10.8659 7.52696
111 2 2.39008 11.8376 7.59482
192 2 1.10066 9.86868 7.41687
175 2 3.21715 10.7504 6.80824
181 2 5.29447 10.4248 6.53027
124 2 0.129682 9.45233 9.09148
5 1 4.35345 12.2151 11.632
7 1 5.73189 10.1046 10.4127
55 1 1.81086 11.7102 10.3424
69 2 3.42228 12.0721 11.7472
183 2 1.06607 12.0983 9.88688
133 2 4.5933 11.6362 10.8084
188 2 0.565605 10.2017 10.4492
119 2 2.26352 11.2377 9.65302
135 2 5.8835 9.97474 9.48482
65 2 11.8736 2.60191 3.00008
6 1 7.36576 0.281297 2.97877
44 1 11.8203 0.474083 0.750298
172 2 12.1123 1.03154 1.52257
108 2 10.9251 0.232804 0.956797
40 1 9.14774 2.22127 6.06034
191 2 9.77251 2.88956 4.2399
56 1 6.40229 2.61496 3.15128
184 2 6.83177 1.71261 3.12875
168 2 9.43271 1.26925 6.19201
10 1 11.7088 0.241712 8.64766
38 1 7.72695 1.09456 8.61836
166 2 6.78512 1.46448 8.58265
171 2 11.9934 2.85301 7.28997
102 2 8.20921 1.7474 9.21187
104 2 9.90765 2.70044 6.42776
26 1 11.5999 1.74407 10.9062
169 2 8.49889 2.50496 10.9927
90 2 11.6068 1.21024 11.6905
109 2 6.75222 2.03999 12.2728
173 2 7.58934 0.757691 11.8336
138 2 11.5921 0.92283 9.37784
154 2 10.6782 2.12123 10.7787
45 1 7.69344 1.70761 12.2369
41 1 8.95086 2.77286 10.1467
114 2 7.6193 0.0935608 10.1078
21 1 9.00013 4.25957 1.42926
85 2 8.26974 3.68327 1.3908
149 2 9.68063 3.84756 2.01752
182 2 10.1254 5.3554 0.657285
54 1 10.8082 5.98146 0.380715
16 1 10.9876 5.46203 5.20007
127 2 10.5905 4.21421 4.20753
63 1 10.4126 3.3606 3.67993
80 2 11.0852 4.90013 6.00583
89 2 6.72179 4.8567 5.4546
153 2 6.24084 4.05759 4.21981
31 1 7.82813 4.38108 6.77275
43 1 11.2697 3.48978 7.22516
58 1 10.1722 5.79854 8.70587
107 2 10.9048 3.58653 8.09058
159 2 8.35795 4.87917 7.39305
95 2 8.09629 3.45357 6.83541
122 2 11.0354 5.93391 9.16205
20 1 8.00474 5.96149 10.2066
156 2 6.53739 5.33656 9.86805
105 2 8.73671 3.66671 9.96779
84 2 8.81213 6.04358 9.65562
3 1 11.9967 7.44464 2.18995
35 1 6.95567 8.64868 1.026
131 2 11.2851 7.98061 2.62104
118 2 11.1152 6.38152 1.2393
99 2 7.7078 8.45504 0.405432
91 2 7.18254 8.65559 2.63488
163 2 6.25514 8.33306 0.468202
27 1 7.4214 8.80061 3.57151
155 2 6.61131 8.55542 4.09861
144 2 10.7414 6.35702 5.57323
30 1 10.4838 7.59612 6.73183
94 2 11.2861 8.10098 7.07669
158 2 9.75632 8.24316 6.83953
186 2 10.1364 6.44668 7.98915
177 2 7.07784 9.29348 7.70884
36 1 12.2192 6.66555 10.3615
57 1 8.73743 7.7703 11.8637
121 2 9.16775 8.49224 11.3278
164 2 12.2062 7.66096 10.2758
185 2 9.44573 7.1579 12.206
100 2 11.6382 6.50225 11.1817
148 2 8.16714 6.65191 10.906
9 1 9.37889 11.5064 1.32675
70 2 6.64285 12.2112 2.42179
73 2 8.82246 11.3028 0.588487
137 2 8.79847 12.0396 1.95958
147 2 10.0713 10.0952 2.55917
72 2 6.57563 10.3978 1.01836
13 1 12.3344 10.1494 4.74078
48 1 7.75177 11.467 5.23937
77 2 11.4704 9.87678 4.48995
19 1 10.0739 9.38965 3.24278
112 2 7.1435 11.5691 5.9939
176 2 7.85166 10.4901 5.16425
134 2 7.51607 12.2082 3.78054
83 2 9.14787 9.48617 3.57415
46 1 8.70668 9.41569 7.74279
61 1 9.72612 11.8608 7.60785
110 2 8.9624 10.3391 7.31037
189 2 10.5311 12.2044 8.02197
125 2 8.97601 12.2323 8.06431
174 2 9.16792 9.49006 8.63778
50 1 7.58999 11.9711 10.9225
79 2 9.39633 10.6094 10.9434
60 1 12.3338 9.64236 9.98558
178 2 6.80442 11.3723 10.9373
15 1 9.69602 9.7932 10.642
143 2 10.6581 9.86988 10.4461
ITEM: TIMESTEP
500
ITEM: NUMBER OF ATOMS
192
ITEM: BOX BOUNDS xy xz yz pp pp pp
0.0000000000000000e+00 1.2444699999999999e+01 0.0000000000000000e+00
0.0000000000000000e+00 1.2444699999999999e+01 0.0000000000000000e+00
0.0000000000000000e+00 1.2444699999999999e+01 0.0000000000000000e+00
ITEM: ATOMS id type x y z
1 1 0.206963 2.41658 2.77141
120 2 5.72223 2.88491 2.66498
51 1 4.65803 1.38615 5.8077
190 2 1.16982 2.00221 4.2736
62 1 1.9211 1.87164 4.90841
126 2 2.19635 0.892332 4.81727
115 2 4.66107 0.403291 5.76444
179 2 5.06272 1.73107 4.95648
37 1 4.78456 2.26285 8.12237
39 1 1.63633 1.13152 7.37752
167 2 1.37929 1.49225 6.55383
101 2 4.57542 1.95057 7.18793
103 2 1.85148 1.85327 7.99765
74 2 0.145413 0.596833 8.31257
32 1 5.09198 2.48908 11.5081
160 2 4.88703 1.514 11.5447
81 2 0.944634 2.88449 11.8512
22 1 2.18933 2.47999 9.48354
96 2 4.73163 2.64312 12.3707
86 2 3.20953 2.39184 9.37867
2 1 5.39252 5.97886 2.56174
12 1 3.95786 3.41935 1.69559
17 1 1.10964 3.52736 0.11993
140 2 3.0534 3.36411 1.41382
76 2 4.22233 4.35653 1.64544
130 2 6.05532 5.99712 1.84216
129 2 0.77873 3.12016 2.35493
4 1 2.74238 4.55424 4.37795
25 1 6.03245 4.78726 4.92174
68 2 3.66546 4.58569 3.9636
66 2 5.88731 5.87968 3.38443
132 2 2.67428 3.56338 4.5692
146 2 1.44494 5.91857 3.90384
82 2 0.141325 6.21374 4.78649
153 2 6.21956 3.91169 4.46656
165 2 5.04053 3.22687 8.20252
162 2 2.53095 6.13796 8.54794
28 1 5.60397 5.34837 9.50512
34 1 2.23313 5.86684 9.45619
150 2 2.08794 3.45275 9.44359
92 2 5.47926 4.61014 10.0885
123 2 2.64359 6.17457 11.5448
145 2 0.39853 4.20036 12.3895
14 1 3.29387 8.039 2.90725
42 1 1.50143 8.43713 0.821394
78 2 2.49181 8.08478 2.34201
106 2 0.670807 8.02753 1.21641
142 2 3.90715 7.33855 2.58295
187 2 2.66507 7.20176 0.226047
163 2 6.21953 8.15729 0.164867
157 2 1.74318 7.16699 5.84236
18 1 0.810804 6.63058 4.24182
29 1 2.12609 7.22972 6.76135