# LAMMPS data 
30 atoms
2 atom types
0.0 12.44470 xlo xhi
0.0 12.44470 ylo yhi
0.0 12.44470 zlo zhi
0.0 0.0 0.0 xy xz yz

Atoms # metal

1	1	11.83 2.56 2.18
2	1	5.36 6 1.81
3	1	12.17 7.34 2.71
4	1	3.38 4.28 4.84
5	1	4.54 11.73 11.9
6	1	7.34 0.18 2.18
7	1	5.73 9.9 10.31
8	1	5.32 11.19 1.83
9	1	9.39 11.14 1.1
10	1	12.06 0.64 8.92
11	1	5.01 7.72 11.74
12	1	3.64 3.19 1.08
13	1	11.88 10.9 4.7
14	1	3.88 8.05 2.51
15	1	9.82 9.16 10.18
16	1	11 5.31 5.17
17	1	0.97 4.12 0.84
18	1	1.24 5.99 4.76
19	1	10.1 9.09 3.32
20	1	8.39 5.72 10.39
21	1	8.06 4.72 1.3
22	1	3.23 3.34 8.26
23	1	5.02 6.21 7.29
24	1	3.94 10.55 3.95
25	1	6.25 4.56 4.21
26	1	12.18 2.35 11.11
27	1	6.76 8.57 4.07
28	1	5.87 5.84 9.79
29	1	2.18 6.91 6.99
30	1	10.89 7.69 6.78
